 Gaussian 16, Revision B.01,
 Gaussian 16:  ES64L-G16RevB.01 20-Dec-2017

 ----------------------------------------------------------------------
 # opt=(tight,readfc) freq geom=allcheck guess=read int=ultrafine b3lyp
 /6-311++g(d,p) scf=maxcycle=1600
 ----------------------------------------------------------------------

 ----------------------------------------------------------------------
 Opt and freq optimization for PES minimum (min#3) of 2deoxy_ribofurano
 se_2endo_alpha_adenine in vacuum environment
 ----------------------------------------------------------------------
 Charge =  0 Multiplicity = 1

 SCF Done:  E(RB3LYP) =  -888.579064073     A.U. after    1 cycles
 SCF Done:  E(RB3LYP) =  -888.579064208     A.U. after    9 cycles
 SCF Done:  E(RB3LYP) =  -888.579064208     A.U. after    6 cycles
 Optimization completed.
    -- Stationary point found.
 Normal termination of Gaussian 16 at Sun Jul 24 14:23:45 2022.

 ----------------------------------------------------------------------
 #N Geom=AllCheck Guess=TCheck SCRF=Check GenChk RB3LYP/6-311++G(d,p) F
 req
 ----------------------------------------------------------------------

 ----------------------------------------------------------------------
 Opt and freq optimization for PES minimum (min#3) of 2deoxy_ribofurano
 se_2endo_alpha_adenine in vacuum environment
 ----------------------------------------------------------------------
 Charge =  0 Multiplicity = 1

                         Standard orientation:
 ---------------------------------------------------------------------
 Center     Atomic      Atomic             Coordinates (Angstroms)
 Number     Number       Type             X           Y           Z
 ---------------------------------------------------------------------
      1          8           0        4.442973   -1.562376   -0.415651
      2          6           0        3.837515   -0.675703   -1.345742
      3          6           0        2.634931    0.045806   -0.753101
      4          8           0        1.668813   -0.959154   -0.398871
      5          6           0        2.916381    0.863329    0.537574
      6          8           0        2.640732    2.259948    0.367023
      7          6           0        1.935659    0.282889    1.567741
      8          6           0        0.936642   -0.547410    0.748325
      9          1           0        3.786104   -2.232429   -0.193182
     10          1           0        4.602514    0.052994   -1.627350
     11          1           0        3.528038   -1.207338   -2.253746
     12          1           0        2.207161    0.721150   -1.506331
     13          1           0        3.949842    0.728154    0.864162
     14          1           0        2.464932   -0.391181    2.242390
     15          1           0        0.604399   -1.455091    1.249131
     16          1           0        3.363985    2.671406   -0.116441
     17          1           0        1.471146    1.067664    2.163514
     18          7           0       -0.291223    0.160682    0.395579
     19          6           0       -0.481395    1.480444    0.006668
     20          7           0       -1.717454    1.754561   -0.324414
     21          6           0       -2.392798    0.559510   -0.154198
     22          6           0       -3.739053    0.186961   -0.331375
     23          7           0       -4.096255   -1.081932   -0.076190
     24          6           0       -3.156702   -1.939791    0.346815
     25          7           0       -1.858956   -1.711058    0.556131
     26          6           0       -1.531217   -0.444567    0.285976
     27          1           0        0.339009    2.183090    0.001437
     28          1           0       -3.501767   -2.950504    0.542158
     29          7           0       -4.687320    1.066036   -0.735113
     30          1           0       -4.423453    1.994389   -1.019384
     31          1           0       -5.613368    0.723528   -0.930410
 ---------------------------------------------------------------------

 SCF Done:  E(RB3LYP) =  -888.579064208     A.U. after    1 cycles

 The electronic state is 1-A.
 Alpha  occ. eigenvalues --  -19.15493 -19.15464 -19.14024 -14.37939 -14.33906
 Alpha  occ. eigenvalues --  -14.31458 -14.30978 -14.30406 -10.28598 -10.26309
 Alpha  occ. eigenvalues --  -10.25309 -10.24452 -10.24405 -10.24358 -10.23794
 Alpha  occ. eigenvalues --  -10.23471 -10.20030 -10.19979  -1.08558  -1.05374
 Alpha  occ. eigenvalues --   -1.04367  -1.03411  -0.98430  -0.94198  -0.90254
 Alpha  occ. eigenvalues --   -0.86597  -0.80499  -0.78887  -0.76815  -0.70553
 Alpha  occ. eigenvalues --   -0.67015  -0.65561  -0.64987  -0.61854  -0.59583
 Alpha  occ. eigenvalues --   -0.57671  -0.56408  -0.54738  -0.54082  -0.51805
 Alpha  occ. eigenvalues --   -0.50898  -0.50599  -0.49530  -0.47458  -0.46803
 Alpha  occ. eigenvalues --   -0.45852  -0.44799  -0.43869  -0.43431  -0.42462
 Alpha  occ. eigenvalues --   -0.41068  -0.40253  -0.39790  -0.37232  -0.36366
 Alpha  occ. eigenvalues --   -0.35900  -0.35502  -0.33121  -0.31557  -0.30375
 Alpha  occ. eigenvalues --   -0.29502  -0.29098  -0.28845  -0.27108  -0.25892
 Alpha  occ. eigenvalues --   -0.22820
 Alpha virt. eigenvalues --   -0.03306  -0.02573  -0.01196  -0.00598  -0.00407
 Alpha virt. eigenvalues --   -0.00020   0.00906   0.01720   0.01873   0.02243
 Alpha virt. eigenvalues --    0.03103   0.03482   0.03671   0.04141   0.04345

 Mulliken charges:
               1
     1  O   -0.204772
     2  C   -0.684296
     3  C    0.064849
     4  O   -0.072497
     5  C   -0.111342
     6  O   -0.233713
     7  C   -0.632285
     8  C   -0.313099
     9  H    0.255597
    10  H    0.174925
    11  H    0.177412
    12  H    0.222433
    13  H    0.239775
    14  H    0.187062
    15  H    0.279679
    16  H    0.279808
    17  H    0.243288
    18  N    0.334681
    19  C    0.079331
    20  N   -0.145710
    21  C    0.881898
    22  C   -0.496603
    23  N   -0.215998
    24  C    0.012196
    25  N   -0.181236
    26  C   -0.846917
    27  H    0.267174
    28  H    0.213301
    29  N   -0.370644
    30  H    0.287385
    31  H    0.308318
 Sum of Mulliken charges =   0.00000

 Dipole moment (field-independent basis, Debye):
    X=              2.5534    Y=              2.1088    Z=             -0.5892  Tot=              3.3637
 Quadrupole moment (field-independent basis, Debye-Ang):
   XX=           -100.3116   YY=           -108.2774   ZZ=           -102.0401
   XY=              1.7842   XZ=              2.3031   YZ=             -4.2053

  Exact polarizability: 217.710   4.031 160.190   8.782 -11.337 116.781
 Approx polarizability: 293.578   4.170 262.524  20.000 -26.215 177.725

                      1                      2                      3
                      A                      A                      A
 Frequencies --     29.4580                38.8690                64.2852
 Red. masses --      5.5826                 5.7699                 5.8209
 Frc consts  --      0.0029                 0.0051                 0.0142
 IR Inten    --      0.5121                 0.2505                 1.1831

                      4                      5                      6
                      A                      A                      A
 Frequencies --     81.6270               118.1838               128.6378
 Red. masses --      5.0076                 5.6974                 1.5593
 Frc consts  --      0.0197                 0.0469                 0.0152
 IR Inten    --      4.5092                 3.9897               189.6835

                      7                      8                      9
                      A                      A                      A
 Frequencies --    139.4332               162.8410               193.8784
 Red. masses --      4.6604                 4.0807                 4.0926
 Frc consts  --      0.0534                 0.0638                 0.0906
 IR Inten    --      7.2890                10.9889                 9.3235

                     10                     11                     12
                      A                      A                      A
 Frequencies --    227.1468               259.0543               265.5298
 Red. masses --      3.8226                 1.1610                 3.0485
 Frc consts  --      0.1162                 0.0459                 0.1266
 IR Inten    --     21.9289               114.7440                 2.2760

                     13                     14                     15
                      A                      A                      A
 Frequencies --    286.7934               299.0556               305.8150
 Red. masses --      3.5265                 4.5174                 3.3688
 Frc consts  --      0.1709                 0.2380                 0.1856
 IR Inten    --      1.7664                 3.7713                 8.8169

                     16                     17                     18
                      A                      A                      A
 Frequencies --    384.8196               408.4063               439.1229
 Red. masses --      3.2665                 1.7556                 2.0220
 Frc consts  --      0.2850                 0.1725                 0.2297
 IR Inten    --     19.4540                81.5475                63.7882

                     19                     20                     21
                      A                      A                      A
 Frequencies --    474.7846               529.0047               532.6566
 Red. masses --      3.3506                 1.1086                 6.4817
 Frc consts  --      0.4450                 0.1828                 1.0835
 IR Inten    --     40.6893                 2.1697                 2.1751

                     22                     23                     24
                      A                      A                      A
 Frequencies --    572.3052               580.2325               602.0561
 Red. masses --      3.8601                 4.1563                 4.6336
 Frc consts  --      0.7449                 0.8244                 0.9896
 IR Inten    --      4.2603                 3.7477                12.0662

                     25                     26                     27
                      A                      A                      A
 Frequencies --    648.8111               666.1453               679.2047
 Red. masses --      4.8122                 5.7346                 6.1984
 Frc consts  --      1.1935                 1.4993                 1.6847
 IR Inten    --     16.6855                23.1419                10.6700

                     28                     29                     30
                      A                      A                      A
 Frequencies --    690.2105               704.5142               734.9150
 Red. masses --      6.7396                 6.1445                 6.8491
 Frc consts  --      1.8917                 1.7969                 2.1795
 IR Inten    --      5.3690                28.3556                 3.0725

                     31                     32                     33
                      A                      A                      A
 Frequencies --    810.5974               814.2575               847.8111
 Red. masses --      9.4209                 4.9058                 2.5002
 Frc consts  --      3.6471                 1.9164                 1.0588
 IR Inten    --     12.6835                 6.6996                26.5111

                     34                     35                     36
                      A                      A                      A
 Frequencies --    878.6123               898.8393               907.9414
 Red. masses --      2.7529                 1.3761                 8.0391
 Frc consts  --      1.2521                 0.6550                 3.9046
 IR Inten    --     58.0116                 5.7408                12.1839

                     37                     38                     39
                      A                      A                      A
 Frequencies --    917.1449               972.4710               979.8683
 Red. masses --      3.0322                 1.4397                 3.0269
 Frc consts  --      1.5027                 0.8022                 1.7123
 IR Inten    --     15.7371                 3.0070                47.8546

                     40                     41                     42
                      A                      A                      A
 Frequencies --    994.3515              1004.5751              1015.8898
 Red. masses --      2.6879                 2.3395                 2.5046
 Frc consts  --      1.5658                 1.3911                 1.5229
 IR Inten    --     52.7068                29.8652                46.0156

                     43                     44                     45
                      A                      A                      A
 Frequencies --   1031.4490              1070.1879              1085.7463
 Red. masses --      2.9209                 3.0085                 2.6021
 Frc consts  --      1.8309                 2.0301                 1.8073
 IR Inten    --     48.4712               139.6828                35.3306

                     46                     47                     48
                      A                      A                      A
 Frequencies --   1093.6921              1111.9177              1168.9896
 Red. masses --      3.4128                 3.1924                 2.6751
 Frc consts  --      2.4052                 2.3255                 2.1538
 IR Inten    --     46.2437                63.3070                 6.9753

                     49                     50                     51
                      A                      A                      A
 Frequencies --   1197.3719              1222.5923              1231.9770
 Red. masses --      1.5320                 1.1547                 1.3166
 Frc consts  --      1.2941                 1.0170                 1.1774
 IR Inten    --     17.2619                15.3736                69.9838

                     52                     53                     54
                      A                      A                      A
 Frequencies --   1246.9940              1264.6266              1272.0911
 Red. masses --      2.1302                 2.5874                 1.3771
 Frc consts  --      1.9517                 2.4381                 1.3130
 IR Inten    --     48.6557               239.8835                 9.3994

                     55                     56                     57
                      A                      A                      A
 Frequencies --   1315.0800              1325.3832              1334.5474
 Red. masses --      1.9172                 1.8146                 4.5920
 Frc consts  --      1.9535                 1.8781                 4.8186
 IR Inten    --     16.2543                48.1527                11.9554

                     58                     59                     60
                      A                      A                      A
 Frequencies --   1340.9153              1347.1127              1360.1725
 Red. masses --      1.4709                 1.4724                 3.9285
 Frc consts  --      1.5582                 1.5743                 4.2822
 IR Inten    --      1.9952                 5.5919                38.8728

                     61                     62                     63
                      A                      A                      A
 Frequencies --   1371.5469              1384.8174              1392.5221
 Red. masses --      1.4226                 2.0039                 1.3860
 Frc consts  --      1.5767                 2.2642                 1.5835
 IR Inten    --      8.4462                32.5003                 6.1429

                     64                     65                     66
                      A                      A                      A
 Frequencies --   1414.9135              1424.8931              1435.2983
 Red. masses --      1.2874                 1.4012                 5.1786
 Frc consts  --      1.5186                 1.6761                 6.2856
 IR Inten    --     37.4169                 8.8521                44.8483

                     67                     68                     69
                      A                      A                      A
 Frequencies --   1455.0873              1484.7817              1495.3400
 Red. masses --      1.3492                 1.1143                 1.0880
 Frc consts  --      1.6830                 1.4474                 1.4334
 IR Inten    --      6.3610                10.4913                 5.5644

                     70                     71                     72
                      A                      A                      A
 Frequencies --   1497.1473              1522.3472              1607.9131
 Red. masses --      2.7634                 3.6620                 2.3284
 Frc consts  --      3.6495                 5.0003                 3.5468
 IR Inten    --     88.3601                19.4042                17.1982

                     73                     74                     75
                      A                      A                      A
 Frequencies --   1618.2982              1656.3716              2999.8274
 Red. masses --      5.2576                 3.0891                 1.0803
 Frc consts  --      8.1125                 4.9935                 5.7278
 IR Inten    --    107.2918               714.9563                11.3423

                     76                     77                     78
                      A                      A                      A
 Frequencies --   3018.2117              3062.7852              3076.7022
 Red. masses --      1.0695                 1.0851                 1.0980
 Frc consts  --      5.7405                 5.9971                 6.1240
 IR Inten    --     59.1769                11.8146                26.6122

                     79                     80                     81
                      A                      A                      A
 Frequencies --   3081.2307              3122.9722              3132.7382
 Red. masses --      1.0666                 1.0896                 1.1030
 Frc consts  --      5.9660                 6.2610                 6.3777
 IR Inten    --     15.2435                 2.9808                 7.0209

                     82                     83                     84
                      A                      A                      A
 Frequencies --   3165.5867              3239.7672              3605.4141
 Red. masses --      1.0905                 1.0989                 1.0442
 Frc consts  --      6.4384                 6.7958                 7.9973
 IR Inten    --     20.3343                26.8019               102.6277

                     85                     86                     87
                      A                      A                      A
 Frequencies --   3736.5060              3812.2487              3838.9786
 Red. masses --      1.1063                 1.0659                 1.0669
 Frc consts  --      9.1002                 9.1270                 9.2642
 IR Inten    --     60.4816                35.1985                45.6973

 - Thermochemistry -
 -------------------
 Temperature   298.150 Kelvin.  Pressure   1.00000 Atm.
 Atom     1 has atomic number  8 and mass  15.99491

 Molecular mass:   251.10184 amu.
 Principal axes and moments of inertia in atomic units:
                           1         2         3
     Eigenvalues --  1804.513327792.131658741.12665
           X            1.00000  -0.00060   0.00040
           Y            0.00060   0.99996  -0.00888
           Z           -0.00040   0.00888   0.99996
 This molecule is an asymmetric top.
 Rotational symmetry number  1.
 Warning -- assumption of classical behavior for rotation
           may cause significant error
 Rotational temperatures (Kelvin)      0.04800     0.01112     0.00991
 Rotational constants (GHZ):           1.00013     0.23161     0.20647
 Zero-point vibrational energy     645775.6 (Joules/Mol)
                                  154.34407 (Kcal/Mol)
 Warning -- explicit consideration of  24 degrees of freedom as
           vibrations may cause significant error
 Vibrational temperatures:     42.38    55.92    92.49   117.44   170.04
          (Kelvin)            185.08   200.61   234.29   278.95   326.81
                              372.72   382.04   412.63   430.27   440.00
                              553.67   587.61   631.80   683.11   761.12
                              766.37   823.42   834.83   866.22   933.49
                              958.43   977.22   993.06  1013.64  1057.38
                             1166.27  1171.53  1219.81  1264.13  1293.23
                             1306.33  1319.57  1399.17  1409.81  1430.65
                             1445.36  1461.64  1484.03  1539.76  1562.15
                             1573.58  1599.80  1681.92  1722.75  1759.04
                             1772.54  1794.15  1819.52  1830.26  1892.11
                             1906.93  1920.12  1929.28  1938.19  1956.98
                             1973.35  1992.44  2003.53  2035.74  2050.10
                             2065.07  2093.55  2136.27  2151.46  2154.06
                             2190.32  2313.43  2328.37  2383.15  4316.08
                             4342.53  4406.66  4426.69  4433.20  4493.26
                             4507.31  4554.57  4661.30  5187.39  5376.00
                             5484.98  5523.43

 Zero-point correction=                           0.245963 (Hartree/Particle)
 Thermal correction to Energy=                    0.261834
 Thermal correction to Enthalpy=                  0.262779
 Thermal correction to Gibbs Free Energy=         0.201637
 Sum of electronic and zero-point Energies=           -888.333101
 Sum of electronic and thermal Energies=              -888.317230
 Sum of electronic and thermal Enthalpies=            -888.316286
 Sum of electronic and thermal Free Energies=         -888.377427

                     E (Thermal)             CV                S
                      KCal/Mol        Cal/Mol-Kelvin    Cal/Mol-Kelvin
 Total                  164.304             60.533            128.683
 Electronic               0.000              0.000              0.000
 Translational            0.889              2.981             42.462
 Rotational               0.889              2.981             33.174
 Vibrational            162.526             54.572             53.046
 Vibration     1          0.593              1.984              5.866
 Vibration     2          0.594              1.981              5.316
 Vibration     3          0.597              1.971              4.321
 Vibration     4          0.600              1.962              3.851
 Vibration     5          0.608              1.934              3.130
 Vibration     6          0.611              1.925              2.966
 Vibration     7          0.615              1.914              2.812
 Vibration     8          0.623              1.888              2.517
 Vibration     9          0.635              1.848              2.190
 Vibration    10          0.651              1.800              1.901
 Vibration    11          0.668              1.747              1.668
 Vibration    12          0.671              1.736              1.625
 Vibration    13          0.684              1.698              1.493
 Vibration    14          0.692              1.675              1.422
 Vibration    15          0.696              1.663              1.385
 Vibration    16          0.754              1.503              1.020
 Vibration    17          0.773              1.452              0.932
 Vibration    18          0.799              1.385              0.829
 Vibration    19          0.831              1.306              0.724
 Vibration    20          0.884              1.186              0.589
 Vibration    21          0.888              1.178              0.581
 Vibration    22          0.929              1.091              0.500
 Vibration    23          0.937              1.074              0.485
 Vibration    24          0.960              1.027              0.446

 Optimization completed.
    -- Stationary point found.
 Normal termination of Gaussian 16 at Sun Jul 24 14:40:56 2022.
